580
Lattice="24.345 0.0 0.0 0.0 24.345 0.0 0.0 0.0 24.345" Properties=species:S:1:pos:R:3:spacegroup_kinds:I:1:forces:R:3 spacegroup="F d -3 m" unit_cell=conventional energy=-4563.949797327616 free_energy=-4563.949797327616 stress="-0.007491917984423971 -1.4510685114302292e-05 5.07234077309988e-05 -1.4510685114302292e-05 -0.007668731183994358 -1.5590369906867555e-05 5.07234077309988e-05 -1.5590369906867555e-05 -0.0077479470504372835" pbc="T T T"
O       21.75305628       2.58861420       0.00006979        0      -0.00050875      -0.00082343      -0.00101137
O       21.76563015      14.75166732      12.17229134        0       0.00054812       0.00067684      -0.00134746
O        9.56826583      14.77661835       0.01404778        0      -0.00057939       0.00119002      -0.00386079
O        9.62773253       2.50646903      12.12184883        0      -0.00530799       0.00283928       0.00415391
O        0.00067641      21.75330621       2.58908844        0       0.00127625      -0.00398009       0.00131663
O        0.00172540       9.58230438      14.76335020        0      -0.00179923      -0.00393457       0.00296720
O       12.16756947       9.58855138       2.59235399        0      -0.00231424      -0.00133935       0.00108405
O       12.19872011      21.70747593      14.76155832        0       0.00219761      -0.00306322       0.00239805
O        2.59445000      -0.00149436      21.75236765        0       0.00201606      -0.00014289      -0.00046204
O        2.59733241      12.16623260       9.58734093        0       0.00268125      -0.00170384       0.00133913
O       14.73327267      12.19036226      21.76502919        0      -0.00088620       0.00246501      -0.00422508
O       14.78012583      -0.01708575       9.60146983        0      -0.00200256       0.00105097       0.00215056
O        2.58869003       8.67320484       6.08443879        0      -0.00088625      -0.00115469       0.00054327
O        2.58406183      20.84883300      18.25419850        0       0.00135355       0.00046881      -0.00159729
O       14.76479345      20.85632724       6.07959574        0      -0.00033433       0.00061723       0.00021945
O       14.87690357       8.69885102      18.34324029        0      -0.00786652      -0.00188023      -0.00085317
O       -0.00096833       3.49467093       8.67875633        0      -0.00059394       0.00098191       0.00099556
O       -0.00204947      15.67224347      20.84686527        0       0.00062663      -0.00129870       0.00187171
O       12.18574834      15.67451689       8.67465298        0      -0.00368568      -0.00558500       0.01907944
O       12.19987155       3.51755628      20.85372534        0       0.00225445       0.00343673      -0.00589556
O       21.76153043       6.07617983       3.50694034        0      -0.00231420       0.00107668      -0.00092701
O       21.75031035      18.25711289      15.66650453        0       0.00032959      -0.00061330      -0.00344708
O        9.58828011      18.26465064       3.50885338        0       0.00098603      -0.00026570      -0.00018012
O        9.47667053       6.02581086      15.63864183        0       0.00071629      -0.00459238       0.00850753
O        3.49127262      21.74762732       6.08187523        0      -0.00280648      -0.00260301       0.00037948
O        3.48296844       9.58218528      18.27368701        0       0.00264044       0.00395766      -0.00254265
O       15.66147538       9.58002961       6.07851645        0      -0.00026069      -0.00052525       0.00370799
O       15.67302160      21.74915905      18.25735514        0       0.00176496      -0.00406984       0.00144077
O        6.08714612       2.58454071       8.67820154        0       0.00035553       0.00015035      -0.00008883
O        6.07330181      14.77539692      20.85945997        0       0.00321490       0.00113631      -0.00099795
O       18.27123253      14.77910878       8.67464044        0      -0.00274588      -0.00187082      -0.00201800
O       18.27396420       2.57554921      20.84361863        0       0.00506125       0.00030326      -0.00124683
O        8.67295356      -0.00718423       3.49223741        0      -0.00147552       0.00078653      -0.00293298
O        8.66189376      12.15491891      15.68029348        0      -0.00589672       0.01748547      -0.01119528
O       20.84450856      12.16138395       3.48625267        0       0.00221368       0.00011442      -0.00055830
O       20.84415589       0.00007801      15.65701753        0       0.00044538       0.00087862       0.00094956
O        8.68273824      15.65148828      12.17038280        0       0.03125744      -0.03564829      -0.00109500
O        8.67924703       3.49515960      -0.00113160        0       0.00056679      -0.00228617       0.00268496
O       20.83294828       3.50268816      12.16163969        0      -0.00204424       0.00291859       0.00220207
O       20.84808923      15.66945043      -0.00071008        0       0.00001998      -0.00088719      -0.00071572
O        6.07921915      20.83013861      14.74902608        0       0.00114500      -0.00213246       0.00116453
O        6.08739777       8.67062325       2.59140950        0      -0.00230975       0.00203902       0.00371958
O       18.22184554       8.70417267      14.74104193        0      -0.00112268       0.00854482      -0.00123833
O       18.26389684      20.84489280       2.58502841        0       0.00084103       0.00259010       0.00107837
O        3.50037807      18.24787545       9.57954545        0       0.00208587      -0.00419825      -0.00188335
O        3.50119410       6.07811722      21.76672934        0       0.00176046       0.00151434      -0.00163468
O       15.66931251       6.09628464       9.57548624        0      -0.00291880       0.00092438      -0.00322749
O       15.66756733      18.26098802      21.75701107        0       0.00085896       0.00065806      -0.00335826
O        2.59260430      21.75441863      -0.00356779        0       0.00180045      -0.00119127       0.00156035
O        2.60081870       9.57713267      12.17374674        0      -0.00034179      -0.00161473       0.00158121
O       14.75812252       9.58824124      -0.00440872        0       0.00072631       0.00189734      -0.00010166
O       14.75011637      21.77228408      12.16533329        0      -0.00164816       0.00065623       0.00156208
O       21.75502602      -0.00239944       2.59188586        0       0.00008620      -0.00126417       0.00074983
O       21.76549103      12.17487486      14.75082049        0       0.00071260      -0.00364390       0.00059148
O        9.58240289      12.16839786       2.60284802        0      -0.00425753      -0.00059061       0.00053341
O        9.54948118       0.00019470      14.76144789        0      -0.00239069       0.00241548      -0.00159917
O       -0.00027690       2.59237801      21.75073854        0       0.00008018       0.00123673      -0.00012188
O        0.00805177      14.75635959       9.58399839        0       0.00032818      -0.00093900      -0.00082548
O       12.17384384      14.76458574      21.77659272        0       0.00104792      -0.00192735      -0.00039395
O       12.11995034       2.59301671       9.63618686        0      -0.00289844      -0.00057717       0.00123718
O        8.68386023       2.59590277       6.08234108        0      -0.00213625       0.00129737      -0.00212341
O        8.66527450      14.79646337      18.28467198        0      -0.00088073       0.00179329      -0.00596773
O       20.86938953      14.77543012       6.07343506        0       0.00168394       0.00085808      -0.00132560
O       20.82939492       2.59180375      18.27251238        0       0.00001353       0.00021964      -0.00154862
O        3.48789551      -0.00905184       8.67560752        0      -0.00009322      -0.00070833       0.00032599
O        3.48343276      12.16536613      20.84864602        0      -0.00074886       0.00345584       0.00498390
O       15.68467136      12.17232270       8.66162914        0      -0.00209471       0.00155014       0.00009371
O       15.65864023      -0.00265175      20.85449538        0       0.00060377       0.00299806       0.00329731
O        6.09554582      21.76112478       3.49438239        0      -0.00081480      -0.00220007      -0.00240951
O        6.11445278       9.59988472      15.68194684        0      -0.00475890       0.00452990      -0.00193177
O       18.27728199       9.58889178       3.47421739        0       0.00077736      -0.00211806      -0.00024147
O       18.25426250      21.75666658      15.67187507        0       0.00057630       0.00299191      -0.00118858
O       21.75849146       3.50213969       6.07338158        0      -0.00263939       0.00103418      -0.00104542
O       21.75113265      15.66969426      18.25317818        0      -0.00038738      -0.00025501      -0.00123136
O        9.58705727      15.67314906       6.08624249        0       0.00289945       0.00253878       0.00631097
O        9.55645586       3.46403081      18.28143112        0      -0.00668365      -0.00229480      -0.00505572
O        2.59086538       6.08076800       8.67769347        0      -0.00050477       0.00146636       0.00204213
O        2.57975329      18.26180256      20.84404693        0      -0.00057759      -0.00096325      -0.00188919
O       14.76255525      18.25776290       8.67545783        0      -0.00232394      -0.00139796       0.00318693
O       14.74847190       6.06205914      20.87519172        0       0.00351163      -0.00098396       0.00727620
O       -0.00007287       8.67250655       3.50349230        0      -0.00134346       0.00203257       0.00043983
O        0.00009216      20.85179917      15.66463205        0      -0.00044513       0.00174902      -0.00285172
O       12.17568339      20.85019205       3.50277622        0      -0.00062259       0.00016350      -0.00026486
O       12.09599664       8.79472773      15.56720305        0       0.00818389       0.00392510       0.00302278
O       15.73795038       8.67081430      12.10924035        0       0.01659555      -0.00073840      -0.00103001
O       15.67134674      20.85053710       0.00337422        0       0.00148620       0.00106763      -0.00017479
O        3.49981789      20.83944412      12.17174385        0       0.00014160      -0.00022491      -0.00117968
O        3.49198314       8.68094001       0.00809148        0      -0.00043880       0.00315648       0.00048761
O       20.87939755       6.05844512      14.76930315        0       0.00047953       0.00222169      -0.00115143
O       20.84398257      18.26146604       2.58007238        0       0.00059134       0.00010267       0.00133546
O        8.67062521      18.25510416      14.76300195        0      -0.00235158      -0.00818595      -0.00419837
O        8.67325785       6.08908458       2.59086969        0      -0.00305063      -0.00083790       0.00102606
O       18.26788702       3.48160799       9.58685324        0      -0.00397899       0.00180968       0.00001485
O       18.25732804      15.66523011      21.75133250        0      -0.00049049      -0.00070238      -0.00157710
O        6.08862473      15.66096838       9.58289368        0       0.00773607      -0.00206707       0.00658013
O        6.07541944       3.51357013      21.76426790        0       0.00040838      -0.00725668       0.00051765
O       23.53552162       1.84694607       1.84834914        1       0.00085694       0.00053704      -0.00163126
O       23.55015564      14.02753338      14.02561875        1      -0.00013261       0.00124998      -0.00103830
O       11.35499838      14.02449768       1.85184971        1       0.00034417      -0.00139070      -0.00297097
O       11.36942403       1.80640663      14.03600207        1       0.00070246      -0.00124311       0.00041039
O        1.85125419      23.53457741       1.84688906        1      -0.00116146       0.00008317      -0.00115183
O        1.85818818      11.35816840      14.02529876        1      -0.00045992       0.00107562      -0.00442171
O       14.02035666      11.36674473       1.84667379        1       0.00226897       0.00244478       0.00006404
O       14.01155273      23.53212531      14.03656890        1       0.00294665      -0.00137087      -0.00054231
O        1.84539872       1.84294491      23.53434627        1       0.00044261       0.00081921      -0.00080953
O        1.84845587      14.00837172      11.37341527        1       0.00153500       0.00132107       0.00067520
O       14.02356915      14.03582437      23.56255750        1      -0.00078427       0.00173691       0.00266358
O       14.01500784       1.85390803      11.35846985        1       0.00004608      -0.00210977       0.00099828
O        0.81103487       7.93321105       7.93788764        1      -0.00009655      -0.00001907       0.00017075
O        0.80030482      20.11220813      20.10515468        1      -0.00350538       0.00054602       0.00003140
O       12.98424306      20.10730791       7.92729554        1      -0.00292395      -0.00609803       0.00165049
O       13.00032337       7.94000565      20.10703255        1      -0.00580776      -0.00021815      -0.00257518
O       22.49991188       5.27787839       7.92784987        1       0.00128662       0.00071803       0.00121955
O       22.49106770      17.45026958      20.10569485        1       0.00136969       0.00036881      -0.00040497
O       10.32538526      17.45019040       7.93944737        1       0.00749743      -0.00546060       0.01524048
O       10.31746688       5.26218414      20.11263302        1       0.00825245       0.00117843       0.00531438
O       22.49753448       7.93145036       5.28659960        1      -0.00000751      -0.00132412      -0.00156888
O       22.49532869      20.10972215      17.44467235        1      -0.00043345      -0.00186564       0.00082951
O       10.32967671      20.11171140       5.29140081        1      -0.00067149      -0.00271186       0.00236627
O       10.40674564       7.85422482      17.35291914        1      -0.00846730      -0.00846547      -0.00373711
O        5.26584681      22.47878457       7.93836951        1       0.00114179       0.00157412      -0.00317396
O        5.27489826      10.32129798      20.11605372        1      -0.00303149      -0.00090479      -0.00001175
O       17.46760452      10.33168268       7.89187801        1      -0.00135243       0.00117984       0.00127321
O       17.44627634      22.49747424      20.10916973        1      -0.00155463      -0.00120231      -0.00007475
O        7.93251160       0.80669118       7.91555795        1       0.00102889      -0.00148482      -0.00174357
O        7.93449782      13.00510605      20.13605762        1      -0.00155675      -0.00141833      -0.00735685
O       20.13069318      13.00645763       7.93033838        1      -0.00320121      -0.00230898      -0.00045965
O       20.11620065       0.78348598      20.11066865        1      -0.00007160      -0.00061114       0.00217128
O        7.93551272      22.50076876       5.28744673        1       0.00176253       0.00051320      -0.00048882
O        7.91351328      10.34807735      17.51448259        1       0.00845400       0.00338209       0.00370643
O       20.10791791      10.32115819       5.27917978        1      -0.00077233      -0.00099809      -0.00049876
O       20.11005077      22.50051120      17.44637629        1      -0.00150283      -0.00153709       0.00010160
O        6.89732576      16.40245950      14.01653119        1       0.00582276      -0.01546843      -0.01456605
O        6.89683158       4.23529802       1.84810551        1       0.00112781       0.00162212      -0.00075181
O       19.06938080       4.23764863      14.03271653        1      -0.00490931       0.00306116      -0.00450287
O       19.06047545      16.41072999       1.84262504        1      -0.00044655       0.00080589      -0.00188848
O        4.22230043      19.05139734      14.02359228        1       0.00048748      -0.00034963       0.00034075
O        4.23388722       6.89297260       1.85076630        1      -0.00012040       0.00198153       0.00171871
O       16.41886390       6.89070184      13.99147301        1       0.01003348      -0.00642988      -0.00374932
O       16.40754033      19.06760428       1.85305926        1      -0.00123658      -0.00149261       0.00155324
O        4.24793976      16.40894261      11.37045247        1       0.00908337      -0.00384051       0.00445240
O        4.22991910       4.23169063      23.55890399        1       0.00072530       0.00256970      -0.00231697
O       16.39715920       4.24239531      11.34549396        1       0.00135729      -0.00326347      -0.00165852
O       16.41215669      16.41192260      23.53616532        1       0.00060048       0.00165587       0.00249518
O        0.80849212      22.49936753      22.49458263        1       0.00118705       0.00080706      -0.00032672
O        0.81558472      10.31828005      10.32527242        1       0.00126142       0.00045014       0.00246644
O       12.96591910      10.32371968      22.49781516        1       0.00441427      -0.00218260       0.00138463
O       12.96467100      22.50137498      10.31288979        1      -0.00081505      -0.00215746      -0.00127068
O       22.50222499       0.80734055      22.49686096        1       0.00210577      -0.00061182       0.00100477
O       22.49207901      12.98028043      10.30465037        1      -0.00061600      -0.00004315       0.00133845
O       10.29726054      12.99970718      22.50589856        1       0.00136205      -0.00018141       0.00057535
O       10.30608132       0.71660778      10.27152479        1       0.00107443      -0.00051146      -0.00015556
O       22.49577198      22.49365050       0.80864105        1       0.00205963       0.00145691      -0.00008755
O       22.49312614      10.30689680      12.98101194        1      -0.00016184       0.00290796      -0.00041273
O       10.32059784      10.32921292       0.80845313        1       0.00077306      -0.00018522      -0.00012707
O       10.33440010      22.48615500      13.01003495        1       0.00124194      -0.00107320       0.00126940
O       23.53434292      16.40789472      16.40425067        1      -0.00200514       0.00007194       0.00343816
O       23.55237570       4.22817019       4.23004943        1       0.00157360      -0.00029739      -0.00024074
O       11.28138294       4.21617742      16.40156880        1       0.00011838       0.00305913       0.00061839
O       11.37284802      16.41215749       4.24121448        1       0.00044367      -0.00303376       0.00428303
O        1.84701807      19.06719056      16.40196376        1      -0.00193657       0.00089629       0.00174597
O        1.85041645       6.88838810       4.23674586        1      -0.00128520      -0.00307727       0.00390587
O       13.95761344       6.92220729      16.59905446        1       0.00255835      -0.00214443       0.00907246
O       14.02945650      19.06906733       4.23344025        1      -0.00093898      -0.00313419       0.00190298
O        1.84325266      16.40928095      19.06081348        1       0.00134180       0.00064597       0.00045792
O        1.84945057       4.23278975       6.89562518        1       0.00040364       0.00021838      -0.00065995
O       14.04397469       4.24282856      19.05536059        1      -0.00205997      -0.00561001      -0.00321061
O       14.03186731      16.41069694       6.88733855        1      -0.00728676      -0.00571843       0.00343827
O       19.06706862       1.85386430      16.40501126        1       0.00232545      -0.00055553       0.00159851
O       19.07636264      14.01802518       4.24009797        1       0.00088624       0.00112914       0.00094814
O        6.90582186      14.01696028      16.42961590        1      -0.00054406      -0.00505931      -0.01635543
O        6.89850331       1.84847825       4.23718676        1       0.00303627      -0.00058466       0.00147996
O       16.40295232      23.53703638      16.40944822        1      -0.00020660       0.00580370       0.00206650
O       16.41706047      11.35603340       4.23184993        1      -0.00215587       0.00251718       0.00262971
O        4.23914540      11.35287028      16.42262203        1       0.00367583       0.00042033      -0.00580374
O        4.23823884      23.53325227       4.23721844        1       0.00095739      -0.00129792       0.00061180
O       16.41301704       1.83302234      19.07147438        1       0.00152548      -0.00113918      -0.00429490
O       16.42159688      14.03151187       6.89067042        1      -0.00636257      -0.00550616      -0.00006617
O        4.23143520      14.02073506      19.07582685        1       0.00485394      -0.00146050      -0.00176124
O        4.23661977       1.84356089       6.89853915        1       0.00059189       0.00159504      -0.00213030
O       17.51536932       7.93029841      10.27048099        1       0.00405581       0.00038009      -0.00396583
O       17.45237173      20.10822993      22.49680810        1      -0.00364154      -0.00162805       0.00260507
O        5.27408332      20.10759892      10.31026663        1      -0.00094589       0.00067239       0.00048952
O        5.27191503       7.94159655      22.50524341        1       0.00154968      -0.00207982      -0.00118882
O       20.09991857       5.28748560      10.30953779        1      -0.00005518      -0.00086493       0.00074371
O       20.10690798      17.44726808      22.49251991        1      -0.00079717       0.00129829      -0.00137343
O        7.94076753      17.43780803      10.32482936        1       0.01333527      -0.00983440       0.01531949
O        7.94400503       5.28029933      22.49595713        1       0.00207680      -0.00230470       0.00166367
O       20.11607877       7.92968990      13.02034094        1       0.00331072      -0.00415758       0.00187002
O       20.11249590      20.11336915       0.79741644        1      -0.00039580       0.00035517       0.00156035
O        7.93756258      20.09300175      12.96942860        1       0.00277952      -0.00985539      -0.00176565
O        7.93262364       7.93356102       0.80313432        1       0.00003621       0.00259078      -0.00060321
O       24.27276522       3.48999566      24.27347359        2       0.00237852       0.00106991      -0.00028628
O       24.28028691      15.66798136      12.10082554        2       0.00160437      -0.00037835       0.00173356
O       12.09384777      15.67844930      24.28723653        2       0.00272454      -0.00184706       0.00149145
O       12.10846617       3.49409113      12.15637773        2       0.00277205       0.00204490      -0.00126559
O       24.27640333      24.27320916       3.49117662        2       0.00262853       0.00057190       0.00188560
O       24.28069342      12.10274695      15.66583638        2       0.00041581       0.00410098      -0.00016263
O       12.10544163      12.10908664       3.49424207        2       0.00172809       0.00200269       0.00227075
O       12.06398361      24.21688339      15.67919786        2       0.00429828       0.00302746      -0.00015467
O        3.49720605      24.27321894      24.27339504        2      -0.00301573       0.00351888      -0.00187569
O        3.50523173      12.09527056      12.10759129        2       0.00319383       0.00155292       0.00153646
O       15.66669979      12.10582140      24.27398404        2       0.00163078      -0.00301966       0.00097957
O       15.65778579      24.29264436      12.12779229        2      -0.00164843       0.00148444      -0.00170116
O        0.06988385       9.58083774       6.02141977        2      -0.00063909      -0.00015425       0.00239002
O        0.06670520      21.75722958      18.18437926        2      -0.00082737       0.00280927       0.00002961
O       12.24694327      21.76521496       6.01835946        2      -0.00137979      -0.00114287       0.00273048
O       12.32904143       9.53508753      18.13453067        2       0.00140265      -0.00419813       0.01402442
O        0.07027653       6.01422702       9.58072036        2      -0.00121986      -0.00003455       0.00090501
O        0.06249267      18.19295816      21.75166766        2      -0.00299754       0.00209881      -0.00082189
O       12.24395868      18.19341348       9.58129276        2      -0.01148804      -0.01280500       0.00479877
O       12.21885010       6.04180139      21.75482881        2      -0.00512020      -0.00460338      -0.00136158
O       20.84189445       6.01800447       6.02052008        2       0.00139381       0.00019872       0.00101336
O       20.84925773      18.19035091      18.18595977        2      -0.00018559       0.00307574       0.00207170
O        8.67877615      18.19341875       6.02475058        2       0.00063820      -0.00190520       0.00912706
O        8.70136387       6.01861549      18.19922955        2       0.00431205       0.01019774       0.00245144
O        6.01323824      20.85015721       6.01109333        2       0.00054666      -0.00120808      -0.00069945
O        5.99913627       8.66991603      18.19549211        2      -0.00125483       0.00255482       0.00285921
O       18.17989006       8.66722673       5.98477202        2      -0.00221357       0.00057412       0.00158150
O       18.19612496      20.85412374      18.19416442        2      -0.00256414      -0.00049937      -0.00367960
O        6.01245819       0.05876597       9.56265969        2       0.00061586      -0.00257401      -0.00368979
O        6.00155561      12.25074308      21.75481361        2       0.00075281       0.00089451       0.00151743
O       18.20881050      12.24942440       9.54588537        2      -0.00507043      -0.00410094       0.00157871
O       18.18592748       0.06347282      21.75603070        2      -0.00219417       0.00155377       0.00096515
O        9.58960864       0.07660947       6.00684463        2       0.00289786      -0.00111804       0.00280877
O        9.57035809      12.28612220      18.21102663        2      -0.00620755      -0.00140340      -0.00258956
O       21.75428402      12.24898128       6.00335427        2       0.00099756      -0.00230608       0.00074938
O       21.75539007       0.08164780      18.17176047        2       0.00105796      -0.00346618       0.00849162
O        6.16268242      14.75163928      12.10149867        2       0.02739993      -0.00358704       0.01722856
O        6.16082188       2.58821422      24.27479985        2      -0.00257816       0.00156923       0.00228416
O       18.31124371       2.60409122      12.11346554        2      -0.00118301       0.00451421       0.00210582
O       18.32915970      14.76068439      24.26980561        2       0.00011920      -0.00086502       0.00191039
O        6.14547859      18.31687068      15.66220207        2       0.00344185      -0.00877070      -0.00201107
O        6.15238003       6.15125596       3.49382185        2      -0.00036899       0.00046869      -0.00073841
O       18.34986204       6.19141174      15.64667359        2       0.00263549      -0.00566451       0.00504979
O       18.32825484      18.32741273       3.49427012        2      -0.00157746      -0.00110836       0.00041232
O        2.58697095      18.32345097      12.09534823        2       0.00234937      -0.00277462       0.00011171
O        2.58543793       6.15941017      24.27945976        2      -0.00193932      -0.00002787      -0.00147013
O       14.76437296       6.17923339      12.08887085        2       0.00439421      -0.01106130      -0.00477559
O       14.76708497      18.33199382      24.27795326        2      -0.00224063      -0.00284968       0.00381342
O        0.07201225      20.85290977       0.06886779        2      -0.00121647      -0.00133703      -0.00164957
O        0.08067276       8.67602417      12.24610236        2      -0.00142149      -0.00211317      -0.00131656
O       12.23945512       8.67996350       0.07552771        2      -0.00106844      -0.00074161      -0.00124864
O       12.23646269      20.84515740      12.22905714        2      -0.00137529      -0.00370704      -0.00158070
O        0.07411520       0.07361933      20.84681805        2      -0.00175540      -0.00037736       0.00095111
O        0.07874355      12.23732190       8.67871282        2       0.00009881      -0.00112354      -0.00016531
O       12.21034311      12.24796390      20.86452925        2      -0.00486343       0.00052108      -0.00089927
O       12.28391823       0.10159944       8.65697530        2       0.00243469      -0.00186128      -0.00160427
O       20.85470912       0.06737822       0.07042482        2       0.00138616       0.00150073      -0.00048631
O       20.86143022      12.23239175      12.23232679        2       0.00020912      -0.00050002       0.00031767
O        8.66878734      12.25233683       0.08903324        2       0.00005318       0.00240958      -0.00183126
O        8.67032392       0.01318840      12.22007142        2      -0.00014267      -0.00255302       0.00063184
O       24.26945593      14.76410451      18.32764635        2      -0.00104090      -0.00026095      -0.00095888
O       24.27396706       2.58827712       6.15972151        2       0.00078771      -0.00103233      -0.00100796
O       12.09444705       2.61724241      18.33281046        2       0.00450149      -0.00000081       0.00138007
O       12.10754610      14.76531785       6.15897666        2       0.00348743       0.00044260       0.00989099
O       24.26869591      18.33101432      14.76160720        2      -0.00087464      -0.00121671       0.00078588
O       24.27491691       6.15646666       2.58912526        2       0.00222621      -0.00230313       0.00010563
O       11.96866925       6.07913373      14.67120647        2      -0.00657493      -0.00898441       0.00391385