580
Lattice="24.345 0.0 0.0 0.0 24.345 0.0 0.0 0.0 24.345" Properties=species:S:1:pos:R:3:spacegroup_kinds:I:1:forces:R:3 spacegroup="F d -3 m" unit_cell=conventional energy=-4563.976001076235 free_energy=-4563.976001076235 stress="-0.007464625744536908 -3.121505747883026e-05 5.243036132002251e-05 -3.121505747883026e-05 -0.007648922493436159 -5.830873863091302e-06 5.243036132002251e-05 -5.830873863091302e-06 -0.007747658557951505" pbc="T T T"
O       21.75305628       2.58861420       0.00006979        0      -0.00050875      -0.00082343      -0.00101138
O       21.76563015      14.75166732      12.17229134        0       0.00086088       0.00082301      -0.00112603
O        9.56826583      14.77661835       0.01404778        0      -0.00054082       0.00127045      -0.00362305
O        9.62773253       2.50646903      12.12184883        0      -0.00528150       0.00273075       0.00402304
O        0.00067641      21.75330621       2.58908844        0       0.00127627      -0.00398009       0.00131665
O        0.00172540       9.58230438      14.76335020        0      -0.00160095      -0.00381918       0.00300789
O       12.16756947       9.58855138       2.59235399        0      -0.00255979      -0.00154775       0.00081106
O       12.19872011      21.70747593      14.76155832        0       0.00126756      -0.00400576       0.00197053
O        2.59445000      -0.00149436      21.75236765        0       0.00201603      -0.00014304      -0.00046216
O        2.59733241      12.16623260       9.58734093        0       0.00573160       0.00080179       0.00355332
O       14.73327267      12.19036226      21.76502919        0      -0.00034758       0.00287137      -0.00363185
O       14.78012583      -0.01708575       9.60146983        0      -0.00197505       0.00115400       0.00219039
O        2.58869003       8.67320484       6.08443879        0      -0.00089024      -0.00114473       0.00055357
O        2.58406183      20.84883300      18.25419850        0       0.00148298       0.00039442      -0.00172330
O       14.76479345      20.85632724       6.07959574        0      -0.00021208       0.00105732      -0.00008058
O       14.87690357       8.69885102      18.34324029        0      -0.00467261      -0.00377075       0.00009391
O       -0.00096833       3.49467093       8.67875633        0      -0.00059657       0.00098294       0.00099611
O       -0.00204947      15.67224347      20.84686527        0       0.00065695      -0.00131395       0.00185495
O       12.18574834      15.67451689       8.67465298        0      -0.01060791       0.00211280       0.01996905
O       12.19987155       3.51755628      20.85372534        0       0.00241226       0.00320392      -0.00583762
O       21.76153043       6.07617983       3.50694034        0      -0.00231811       0.00107584      -0.00091810
O       21.75031035      18.25711289      15.66650453        0       0.00033477      -0.00061359      -0.00344922
O        9.58828011      18.26465064       3.50885338        0       0.00074331       0.00003048      -0.00035901
O        9.47667053       6.02581086      15.63864183        0       0.00049847      -0.00853007       0.00770022
O        3.49127262      21.74762732       6.08187523        0      -0.00275239      -0.00269939       0.00046970
O        3.48296844       9.58218528      18.27368701        0       0.00258152       0.00589903      -0.00464339
O       15.66147538       9.58002961       6.07851645        0      -0.00027586      -0.00308368       0.00137908
O       15.67302160      21.74915905      18.25735514        0       0.00176303      -0.00406926       0.00143888
O        6.08714612       2.58454071       8.67820154        0       0.00035566       0.00014955      -0.00008846
O        6.07330181      14.77539692      20.85945997        0       0.00307604       0.00186734      -0.00315753
O       18.27123253      14.77910878       8.67464044        0       0.00017695       0.00020054      -0.00160604
O       18.27396420       2.57554921      20.84361863        0       0.00506102       0.00031037      -0.00126212
O        8.67295356      -0.00718423       3.49223741        0      -0.00147660       0.00078804      -0.00293379
O        8.66189376      12.15491891      15.68029348        0      -0.05525219       0.09067952      -0.07256184
O       20.84450856      12.16138395       3.48625267        0       0.00227345       0.00012144      -0.00061772
O       20.84415589       0.00007801      15.65701753        0       0.00044327       0.00088390       0.00094824
O        8.68273824      15.65148828      12.17038280        0       0.03742829      -0.12122286       0.05364153
O        8.67924703       3.49515960      -0.00113160        0       0.00056152      -0.00229306       0.00270203
O       20.83294828       3.50268816      12.16163969        0      -0.00212767       0.00296707       0.00223511
O       20.84808923      15.66945043      -0.00071008        0       0.00002063      -0.00088632      -0.00071689
O        6.07921915      20.83013861      14.74902608        0       0.00269697      -0.00572419       0.00114300
O        6.08739777       8.67062325       2.59140950        0      -0.00231001       0.00203827       0.00372122
O       18.22184554       8.70417267      14.74104193        0      -0.00116858       0.00830400      -0.00018877
O       18.26389684      20.84489280       2.58502841        0       0.00083560       0.00258198       0.00108758
O        3.50037807      18.24787545       9.57954545        0       0.00440166      -0.00766575       0.00019575
O        3.50119410       6.07811722      21.76672934        0       0.00166305       0.00141093      -0.00150144
O       15.66931251       6.09628464       9.57548624        0      -0.00390783      -0.00038628      -0.00282856
O       15.66756733      18.26098802      21.75701107        0       0.00086500       0.00066411      -0.00336056
O        2.59260430      21.75441863      -0.00356779        0       0.00180044      -0.00119137       0.00156025
O        2.60081870       9.57713267      12.17374674        0       0.00176521       0.00042499       0.00305693
O       14.75812252       9.58824124      -0.00440872        0       0.00080597       0.00193699       0.00010750
O       14.75011637      21.77228408      12.16533329        0      -0.00182361       0.00073806       0.00173022
O       21.75502602      -0.00239944       2.59188586        0       0.00008620      -0.00126417       0.00074983
O       21.76549103      12.17487486      14.75082049        0       0.00074180      -0.00368611       0.00067340
O        9.58240289      12.16839786       2.60284802        0      -0.00445337      -0.00077330       0.00033137
O        9.54948118       0.00019470      14.76144789        0      -0.00246827       0.00213929      -0.00171606
O       -0.00027690       2.59237801      21.75073854        0       0.00008015       0.00123670      -0.00012189
O        0.00805177      14.75635959       9.58399839        0       0.00094776      -0.00078616      -0.00055554
O       12.17384384      14.76458574      21.77659272        0       0.00130772      -0.00146332       0.00004169
O       12.11995034       2.59301671       9.63618686        0      -0.00277106      -0.00043562       0.00131323
O        8.68386023       2.59590277       6.08234108        0      -0.00213546       0.00129743      -0.00212248
O        8.66527450      14.79646337      18.28467198        0      -0.00959001       0.00515719      -0.02081858
O       20.86938953      14.77543012       6.07343506        0       0.00224497       0.00105732      -0.00173047
O       20.82939492       2.59180375      18.27251238        0      -0.00001265       0.00026143      -0.00158432
O        3.48789551      -0.00905184       8.67560752        0      -0.00008576      -0.00072621       0.00033269
O        3.48343276      12.16536613      20.84864602        0      -0.00100376       0.00384095       0.00470506
O       15.68467136      12.17232270       8.66162914        0       0.00168206      -0.00204770      -0.00464367
O       15.65864023      -0.00265175      20.85449538        0       0.00060474       0.00299638       0.00329782
O        6.09554582      21.76112478       3.49438239        0      -0.00081436      -0.00220992      -0.00238658
O        6.11445278       9.59988472      15.68194684        0      -0.00778874       0.01934717      -0.00976615
O       18.27728199       9.58889178       3.47421739        0       0.00119803      -0.00233973      -0.00076998
O       18.25426250      21.75666658      15.67187507        0       0.00057653       0.00299188      -0.00118834
O       21.75849146       3.50213969       6.07338158        0      -0.00266323       0.00104948      -0.00102550
O       21.75113265      15.66969426      18.25317818        0      -0.00038316      -0.00025700      -0.00123190
O        9.58705727      15.67314906       6.08624249        0      -0.00049354       0.00375191       0.00653299
O        9.55645586       3.46403081      18.28143112        0      -0.00640706      -0.00330509      -0.00483723
O        2.59086538       6.08076800       8.67769347        0      -0.00050760       0.00147218       0.00204741
O        2.57975329      18.26180256      20.84404693        0      -0.00055923      -0.00097491      -0.00193197
O       14.76255525      18.25776290       8.67545783        0      -0.00186570       0.00129308       0.00411387
O       14.74847190       6.06205914      20.87519172        0       0.00392986      -0.00163001       0.00741904
O       -0.00007287       8.67250655       3.50349230        0      -0.00134168       0.00203163       0.00043917
O        0.00009216      20.85179917      15.66463205        0      -0.00039451       0.00172397      -0.00287487
O       12.17568339      20.85019205       3.50277622        0      -0.00062884       0.00019050      -0.00030115
O       12.09599664       8.79472773      15.56720305        0       0.02454224      -0.01567874       0.01001828
O       15.73795038       8.67081430      12.10924035        0       0.00374076       0.00403061       0.00163548
O       15.67134674      20.85053710       0.00337422        0       0.00148675       0.00106793      -0.00017510
O        3.49981789      20.83944412      12.17174385        0       0.00052375      -0.00100265      -0.00094341
O        3.49198314       8.68094001       0.00809148        0      -0.00044527       0.00315100       0.00050406
O       20.87939755       6.05844512      14.76930315        0       0.00035026       0.00224073      -0.00103398
O       20.84398257      18.26146604       2.58007238        0       0.00058396       0.00010051       0.00134142
O        8.67062521      18.25510416      14.76300195        0      -0.00860423      -0.02615321      -0.00791283
O        8.67325785       6.08908458       2.59086969        0      -0.00305109      -0.00083806       0.00102718
O       18.26788702       3.48160799       9.58685324        0      -0.00410815       0.00175602       0.00007124
O       18.25732804      15.66523011      21.75133250        0      -0.00048616      -0.00069829      -0.00157892
O        6.08862473      15.66096838       9.58289368        0       0.01212202      -0.00961953       0.02471169
O        6.07541944       3.51357013      21.76426790        0       0.00031860      -0.00735877       0.00063740
O       23.53552162       1.84694607       1.84834914        1       0.00085694       0.00053704      -0.00163126
O       23.55015564      14.02753338      14.02561875        1      -0.00008144       0.00122525      -0.00108344
O       11.35499838      14.02449768       1.85184971        1       0.00042082      -0.00133363      -0.00329127
O       11.36942403       1.80640663      14.03600207        1       0.00076953      -0.00139417       0.00030300
O        1.85125419      23.53457741       1.84688906        1      -0.00116146       0.00008316      -0.00115181
O        1.85818818      11.35816840      14.02529876        1       0.00261556       0.00084848      -0.00540778
O       14.02035666      11.36674473       1.84667379        1       0.00230589       0.00254207      -0.00034982
O       14.01155273      23.53212531      14.03656890        1       0.00286693      -0.00144248      -0.00053567
O        1.84539872       1.84294491      23.53434627        1       0.00044257       0.00081916      -0.00080950
O        1.84845587      14.00837172      11.37341527        1       0.00598351       0.00073085       0.00011655
O       14.02356915      14.03582437      23.56255750        1      -0.00066267       0.00181965       0.00287703
O       14.01500784       1.85390803      11.35846985        1       0.00005099      -0.00190728       0.00099145
O        0.81103487       7.93321105       7.93788764        1      -0.00008931      -0.00000366       0.00018125
O        0.80030482      20.11220813      20.10515468        1      -0.00349090       0.00054164       0.00002425
O       12.98424306      20.10730791       7.92729554        1      -0.00277280      -0.00490109       0.00115106
O       13.00032337       7.94000565      20.10703255        1      -0.00419942      -0.00255628       0.00098423
O       22.49991188       5.27787839       7.92784987        1       0.00125564       0.00071011       0.00121730
O       22.49106770      17.45026958      20.10569485        1       0.00137192       0.00036737      -0.00040498
O       10.32538526      17.45019040       7.93944737        1       0.00219483      -0.00393039       0.01818037
O       10.31746688       5.26218414      20.11263302        1       0.00867427       0.00054224       0.00624324
O       22.49753448       7.93145036       5.28659960        1       0.00000260      -0.00134399      -0.00157064
O       22.49532869      20.10972215      17.44467235        1      -0.00043049      -0.00186572       0.00082777
O       10.32967671      20.11171140       5.29140081        1      -0.00072876      -0.00270961       0.00229784
O       10.40674564       7.85422482      17.35291914        1      -0.01384308      -0.02182035       0.00377032
O        5.26584681      22.47878457       7.93836951        1       0.00111720       0.00139031      -0.00312770
O        5.27489826      10.32129798      20.11605372        1      -0.00343726      -0.00049069       0.00034379
O       17.46760452      10.33168268       7.89187801        1      -0.00042067      -0.00328768      -0.00143210
O       17.44627634      22.49747424      20.10916973        1      -0.00155463      -0.00120222      -0.00007478
O        7.93251160       0.80669118       7.91555795        1       0.00102921      -0.00148490      -0.00174216
O        7.93449782      13.00510605      20.13605762        1      -0.00250427       0.00066543      -0.00830753
O       20.13069318      13.00645763       7.93033838        1      -0.00042433      -0.00152240      -0.00201208
O       20.11620065       0.78348598      20.11066865        1      -0.00007264      -0.00060868       0.00216948
O        7.93551272      22.50076876       5.28744673        1       0.00173958       0.00050386      -0.00048680
O        7.91351328      10.34807735      17.51448259        1      -0.00092686       0.01577346      -0.00102579
O       20.10791791      10.32115819       5.27917978        1      -0.00042655      -0.00092934      -0.00081122
O       20.11005077      22.50051120      17.44637629        1      -0.00150284      -0.00153681       0.00010154
O        6.89732576      16.40245950      14.01653119        1       0.01603373      -0.07568772      -0.04169201
O        6.89683158       4.23529802       1.84810551        1       0.00112747       0.00162198      -0.00075064
O       19.06938080       4.23764863      14.03271653        1      -0.00499564       0.00326412      -0.00440366
O       19.06047545      16.41072999       1.84262504        1      -0.00044285       0.00082275      -0.00189563
O        4.22230043      19.05139734      14.02359228        1       0.00354486      -0.00303965       0.00117812
O        4.23388722       6.89297260       1.85076630        1      -0.00012059       0.00198115       0.00171994
O       16.41886390       6.89070184      13.99147301        1       0.00733250      -0.00470435      -0.00517789
O       16.40754033      19.06760428       1.85305926        1      -0.00122323      -0.00148791       0.00155368
O        4.24793976      16.40894261      11.37045247        1       0.02936864      -0.01772373       0.01217588
O        4.22991910       4.23169063      23.55890399        1       0.00071775       0.00256238      -0.00230404
O       16.39715920       4.24239531      11.34549396        1       0.00124120      -0.00325582      -0.00156743
O       16.41215669      16.41192260      23.53616532        1       0.00060990       0.00166331       0.00249924
O        0.80849212      22.49936753      22.49458263        1       0.00118715       0.00080694      -0.00032686
O        0.81558472      10.31828005      10.32527242        1       0.00164550       0.00074739       0.00258733
O       12.96591910      10.32371968      22.49781516        1       0.00440942      -0.00238944       0.00232489
O       12.96467100      22.50137498      10.31288979        1      -0.00094994      -0.00206605      -0.00106331
O       22.50222499       0.80734055      22.49686096        1       0.00210577      -0.00061181       0.00100476
O       22.49207901      12.98028043      10.30465037        1      -0.00016102      -0.00011783       0.00133457
O       10.29726054      12.99970718      22.50589856        1       0.00111280      -0.00011449       0.00130714
O       10.30608132       0.71660778      10.27152479        1       0.00110577      -0.00048647      -0.00014270
O       22.49577198      22.49365050       0.80864105        1       0.00205963       0.00145691      -0.00008755
O       22.49312614      10.30689680      12.98101194        1      -0.00011458       0.00281788      -0.00039125
O       10.32059784      10.32921292       0.80845313        1       0.00075122      -0.00021287      -0.00009170
O       10.33440010      22.48615500      13.01003495        1       0.00105334      -0.00248222       0.00152200
O       23.53434292      16.40789472      16.40425067        1      -0.00200052       0.00007207       0.00343662
O       23.55237570       4.22817019       4.23004943        1       0.00157260      -0.00029705      -0.00023972
O       11.28138294       4.21617742      16.40156880        1       0.00050134       0.00136193       0.00105286
O       11.37284802      16.41215749       4.24121448        1      -0.00052511      -0.00148489       0.00190295
O        1.84701807      19.06719056      16.40196376        1      -0.00161846       0.00090120       0.00161995
O        1.85041645       6.88838810       4.23674586        1      -0.00128511      -0.00307726       0.00390599
O       13.95761344       6.92220729      16.59905446        1       0.00890436      -0.00667899       0.00805047
O       14.02945650      19.06906733       4.23344025        1      -0.00102065      -0.00285358       0.00157791
O        1.84325266      16.40928095      19.06081348        1       0.00146447       0.00059715       0.00041810
O        1.84945057       4.23278975       6.89562518        1       0.00040355       0.00021846      -0.00065991
O       14.04397469       4.24282856      19.05536059        1      -0.00198043      -0.00582286      -0.00316228
O       14.03186731      16.41069694       6.88733855        1      -0.00438466      -0.00119229       0.00252830
O       19.06706862       1.85386430      16.40501126        1       0.00233755      -0.00049397       0.00159728
O       19.07636264      14.01802518       4.24009797        1       0.00122762       0.00104843       0.00056955
O        6.90582186      14.01696028      16.42961590        1       0.00000165      -0.00952816      -0.07487264
O        6.89850331       1.84847825       4.23718676        1       0.00303616      -0.00058455       0.00147998
O       16.40295232      23.53703638      16.40944822        1      -0.00020899       0.00580322       0.00206655
O       16.41706047      11.35603340       4.23184993        1      -0.00036864       0.00155100      -0.00042616
O        4.23914540      11.35287028      16.42262203        1       0.01601414       0.00656072      -0.01591495
O        4.23823884      23.53325227       4.23721844        1       0.00095788      -0.00130171       0.00061545
O       16.41301704       1.83302234      19.07147438        1       0.00154252      -0.00112986      -0.00429630
O       16.42159688      14.03151187       6.89067042        1      -0.00143318      -0.00170727      -0.00103641
O        4.23143520      14.02073506      19.07582685        1       0.00651860      -0.00083542      -0.00360926
O        4.23661977       1.84356089       6.89853915        1       0.00059195       0.00159441      -0.00213007
O       17.51536932       7.93029841      10.27048099        1       0.00193723      -0.00209115      -0.00230695
O       17.45237173      20.10822993      22.49680810        1      -0.00364138      -0.00162795       0.00260509
O        5.27408332      20.10759892      10.31026663        1       0.00003906      -0.00115464       0.00012525
O        5.27191503       7.94159655      22.50524341        1       0.00158345      -0.00207550      -0.00098026
O       20.09991857       5.28748560      10.30953779        1      -0.00007423      -0.00094578       0.00073977
O       20.10690798      17.44726808      22.49251991        1      -0.00079711       0.00129841      -0.00137348
O        7.94076753      17.43780803      10.32482936        1       0.01844420      -0.02388494       0.04297633
O        7.94400503       5.28029933      22.49595713        1       0.00208664      -0.00228383       0.00186152
O       20.11607877       7.92968990      13.02034094        1       0.00408211      -0.00482854       0.00241251
O       20.11249590      20.11336915       0.79741644        1      -0.00039643       0.00035476       0.00156107
O        7.93756258      20.09300175      12.96942860        1       0.00688669      -0.01977715      -0.00307307
O        7.93262364       7.93356102       0.80313432        1       0.00003626       0.00259008      -0.00060140
O       24.27276522       3.48999566      24.27347359        2       0.00237850       0.00106989      -0.00028627
O       24.28028691      15.66798136      12.10082554        2       0.00221441      -0.00038982       0.00145516
O       12.09384777      15.67844930      24.28723653        2       0.00274557      -0.00176034       0.00164773
O       12.10846617       3.49409113      12.15637773        2       0.00307238       0.00203646      -0.00156495
O       24.27640333      24.27320916       3.49117662        2       0.00262854       0.00057189       0.00188562
O       24.28069342      12.10274695      15.66583638        2       0.00065357       0.00396251      -0.00019773
O       12.10544163      12.10908664       3.49424207        2       0.00143381       0.00183226       0.00164026
O       12.06398361      24.21688339      15.67919786        2       0.00429873       0.00291495      -0.00020948
O        3.49720605      24.27321894      24.27339504        2      -0.00301575       0.00351886      -0.00187568
O        3.50523173      12.09527056      12.10759129        2       0.00809102       0.00443083       0.00211388
O       15.66669979      12.10582140      24.27398404        2       0.00169980      -0.00300189       0.00108354
O       15.65778579      24.29264436      12.12779229        2      -0.00165148       0.00157270      -0.00173689
O        0.06988385       9.58083774       6.02141977        2      -0.00062725      -0.00014801       0.00240327
O        0.06670520      21.75722958      18.18437926        2      -0.00081623       0.00280290       0.00002718
O       12.24694327      21.76521496       6.01835946        2      -0.00145568      -0.00096612       0.00251506
O       12.32904143       9.53508753      18.13453067        2       0.01160126      -0.00994662       0.02945470
O        0.07027653       6.01422702       9.58072036        2      -0.00121936      -0.00002709       0.00091245
O        0.06249267      18.19295816      21.75166766        2      -0.00298956       0.00209729      -0.00082682
O       12.24395868      18.19341348       9.58129276        2      -0.01504160      -0.01091097       0.00742983
O       12.21885010       6.04180139      21.75482881        2      -0.00521627      -0.00507705      -0.00097398
O       20.84189445       6.01800447       6.02052008        2       0.00141604       0.00015564       0.00102719
O       20.84925773      18.19035091      18.18595977        2      -0.00018536       0.00307569       0.00207162
O        8.67877615      18.19341875       6.02475058        2      -0.00052072      -0.00220372       0.01001989
O        8.70136387       6.01861549      18.19922955        2       0.00318881       0.00691931       0.00412478
O        6.01323824      20.85015721       6.01109333        2       0.00049946      -0.00139305      -0.00049322
O        5.99913627       8.66991603      18.19549211        2      -0.00330201       0.00409046       0.00184516
O       18.17989006       8.66722673       5.98477202        2      -0.00087658      -0.00058771      -0.00040523
O       18.19612496      20.85412374      18.19416442        2      -0.00256415      -0.00049936      -0.00367960
O        6.01245819       0.05876597       9.56265969        2       0.00061084      -0.00260292      -0.00367529
O        6.00155561      12.25074308      21.75481361        2       0.00071030       0.00102457       0.00156536
O       18.20881050      12.24942440       9.54588537        2       0.00063671      -0.00180260       0.00148840
O       18.18592748       0.06347282      21.75603070        2      -0.00219417       0.00155421       0.00096482
O        9.58960864       0.07660947       6.00684463        2       0.00289786      -0.00111529       0.00281061
O        9.57035809      12.28612220      18.21102663        2      -0.01705884       0.01062318      -0.00752529
O       21.75428402      12.24898128       6.00335427        2       0.00127886      -0.00238837       0.00045305
O       21.75539007       0.08164780      18.17176047        2       0.00105721      -0.00346484       0.00849136
O        6.16268242      14.75163928      12.10149867        2       0.07876367      -0.01935450       0.06657558
O        6.16082188       2.58821422      24.27479985        2      -0.00257902       0.00156602       0.00228926
O       18.31124371       2.60409122      12.11346554        2      -0.00128601       0.00459457       0.00205975
O       18.32915970      14.76068439      24.26980561        2       0.00012352      -0.00086250       0.00191197
O        6.14547859      18.31687068      15.66220207        2       0.01244456      -0.02498646      -0.00763632
O        6.15238003       6.15125596       3.49382185        2      -0.00036901       0.00046866      -0.00073832
O       18.34986204       6.19141174      15.64667359        2       0.00273276      -0.00567723       0.00508543
O       18.32825484      18.32741273       3.49427012        2      -0.00154928      -0.00107045       0.00035084
O        2.58697095      18.32345097      12.09534823        2       0.00456221      -0.00545971      -0.00084494
O        2.58543793       6.15941017      24.27945976        2      -0.00194230      -0.00002880      -0.00146515
O       14.76437296       6.17923339      12.08887085        2       0.00457692      -0.00890064      -0.00302191
O       14.76708497      18.33199382      24.27795326        2      -0.00223769      -0.00284319       0.00381795
O        0.07201225      20.85290977       0.06886779        2      -0.00121642      -0.00133707      -0.00164963
O        0.08067276       8.67602417      12.24610236        2      -0.00134603      -0.00204207      -0.00128401
O       12.23945512       8.67996350       0.07552771        2      -0.00114978      -0.00074562      -0.00103141
O       12.23646269      20.84515740      12.22905714        2      -0.00284555      -0.00457571      -0.00078653
O        0.07411520       0.07361933      20.84681805        2      -0.00175534      -0.00037743       0.00095105
O        0.07874355      12.23732190       8.67871282        2       0.00039772      -0.00108588      -0.00001314
O       12.21034311      12.24796390      20.86452925        2      -0.00469108       0.00097528       0.00003411
O       12.28391823       0.10159944       8.65697530        2       0.00243404      -0.00180383      -0.00157715
O       20.85470912       0.06737822       0.07042482        2       0.00138616       0.00150074      -0.00048631
O       20.86143022      12.23239175      12.23232679        2       0.00058149      -0.00062934       0.00071799
O        8.66878734      12.25233683       0.08903324        2       0.00005365       0.00233120      -0.00160121
O        8.67032392       0.01318840      12.22007142        2      -0.00015053      -0.00281612       0.00074510
O       24.26945593      14.76410451      18.32764635        2      -0.00100010      -0.00027331      -0.00094465
O       24.27396706       2.58827712       6.15972151        2       0.00078718      -0.00103206      -0.00100788
O       12.09444705       2.61724241      18.33281046        2       0.00467019      -0.00024110       0.00151573
O       12.10754610      14.76531785       6.15897666        2      -0.00089821       0.00209251       0.00379943
O       24.26869591      18.33101432      14.76160720        2      -0.00079429      -0.00119882       0.00074795
O       24.27491691       6.15646666       2.58912526        2       0.00222640      -0.00230324       0.00010554
O       11.96866925       6.07913373      14.67120647        2      -0.00363507      -0.01546544       0.00091269